8
Lattice="4.33993974 -1.9e-07 -1.9e-07 0.0 4.33993974 -1.9e-07 0.0 0.0 4.33993974" Properties=species:S:1:pos:R:3:forces:R:3 energy=-41.51416647 stress="-0.6500152275783353 -0.3618406295808558 -0.04839314281797814 -0.3618406295808558 -0.4434673216272662 0.16452925398348192 -0.04839314281797814 0.16452925398348192 -0.11970863557117262" free_energy=-41.52916326 pbc="T T T"
C        3.06712156       3.53821624       2.98843730     -32.04012133      -5.76369728      -5.05180973
C        3.24747093       1.85278193       2.88568300       3.36932392      -3.15861073       6.21172212
C        3.38043696       1.33711458       0.76431591      -3.67703138      -2.75552135       6.55657377
C        0.35869142       0.16911203       3.04267448      23.44141008      27.89526897      -4.73707588
C        4.13915668       3.60649018       3.17362764      10.06204909     -19.30440378       8.55914665
C        3.65775221       2.28406108       0.00430244       0.31599244       1.57586374      -6.83339727
C        2.38087007       2.27152002       2.06637374      -2.77252225       0.55057780      -4.25938558
C        1.08117082       3.69604223       2.16096246       1.30089944       0.96052264      -0.44577408
8
Lattice="4.33993974 -1.9e-07 -1.9e-07 0.0 4.33993974 -1.9e-07 0.0 0.0 4.33993974" Properties=species:S:1:pos:R:3:forces:R:3 energy=-55.61906467 stress="-0.01422493186089562 -0.02420306803043821 0.010853441995250965 -0.02420306803043821 0.09270639781014586 0.004277058503436628 0.010853441995250965 0.004277058503436628 -0.13762538929690518" free_energy=-55.67556918 pbc="T T T"
C        2.88380160       3.57219190       3.03934567      -0.25816874       0.74064612      -0.42875737
C        3.11874688       1.22943262       2.94779968      -0.03640933      -0.16517800       0.30025199
C        3.28209102       2.22449005       0.91570131      -0.16061952       0.27755065      -0.96692412
C        0.61122231       0.30580641       3.05076034       0.05109126       0.19189441      -0.21661625
C        4.34391716       3.33560424       3.25159887      -0.03556032      -0.08053192       0.15455425
C        3.45037296       2.34781542      -0.42066536       0.35698574      -0.59268477       1.66734995
C        2.58494909       2.24542139       2.01127008      -0.15310994      -0.10965722      -0.47832062
C        1.03756966       3.49457629       2.29056640       0.23579085      -0.26203927      -0.03153782
8
Lattice="4.3194443 -1.9e-07 -1.9e-07 0.0 4.3194443 -1.9e-07 0.0 0.0 4.3194443" Properties=species:S:1:pos:R:3:forces:R:3 energy=-48.57319081 stress="0.1971340749013631 0.020198700542666165 0.06974053403313774 0.020198700542666165 0.007447845540301121 -0.05598687731144804 0.06974053403313774 -0.05598687731144804 0.0957102318179077" free_energy=-48.60638419 pbc="T T T"
C        0.44130605       1.15101371       0.42832328      -0.94685509       0.29631966      -2.68124089
C        0.74600937       3.43434370       3.32039967       1.15141407      -2.59254151       1.12775688
C        3.16328098       3.24483372       1.22664886      -3.28649509       0.27690253      -1.41307178
C        1.82249985       3.79836715       0.74293078       1.87770549      -1.40640161      -2.11026897
C        2.18455515       0.73157062       2.41491419       2.04253355       4.08800265       4.81757436
C        0.08490282       1.76745894       3.27979035       0.39852781      -0.29672257       4.61727405
C        3.06348501       1.14450462       3.59053793       1.60918395       2.07397474      -3.85488890
C        2.42414324       3.73842041       2.35910164      -2.84601470      -2.43953389      -0.50313475
8
Lattice="4.3194443 -1.9e-07 -1.9e-07 0.0 4.3194443 -1.9e-07 0.0 0.0 4.3194443" Properties=species:S:1:pos:R:3:forces:R:3 energy=-52.93768581 stress="-0.018128725093677262 0.032505153841276176 0.007468325510844953 0.032505153841276176 -0.06536501137290844 -0.013725763910485344 0.007468325510844953 -0.013725763910485344 -0.025875875762872702" free_energy=-52.99128265 pbc="T T T"
C        0.21085557       1.37760252       0.23948171      -0.03488344      -0.04346003      -0.03755378
C        0.04488179       3.45514181       3.30917139       0.00242272       0.01126622      -0.03509788
C        3.43571489       3.34808488       0.99094337      -0.14231823      -0.03300521       0.02958612
C        2.12894036       3.36092427       0.65273479       0.11496263       0.01428967       0.04405848
C        2.42534811       0.20468890       3.21609548      -0.02755011       0.00996229       0.01158544
C       -0.15425116       2.06445409       3.40370492       0.00152054       0.01090623       0.02675931
C        2.94844357       1.39840903       3.38206448       0.05286058       0.06115816      -0.00464036
C        2.89024933       3.80120735       2.16845050       0.03298531      -0.03111733      -0.03469734
8
Lattice="3.86800414 -1.7e-07 -1.7e-07 0.0 3.86800414 -1.7e-07 0.0 0.0 3.86800414" Properties=species:S:1:pos:R:3:forces:R:3 energy=-46.02418592 stress="-0.3109179711730319 0.20931132194561106 0.13720084619649447 0.20931132194561106 -0.40560973616973156 0.07098746019225398 0.13720084619649447 0.07098746019225398 -0.3908381397534871" free_energy=-46.04755208 pbc="T T T"
C        2.86047980       2.89671445       2.23400004       6.20598793      10.61679555     -18.62642102
C        2.88306404       2.06962248       3.00288252       1.32251121     -18.49968226      16.09587809
C        1.81728160       2.51532255       0.79314087      -1.84404159      -2.76873073      -1.37600165
C        0.85770385       1.18974307       1.01123548       3.25961241       6.03635640      -3.21303057
C        1.23978541       3.67035372       3.12023452     -13.70460171       1.04336090       8.03933205
C        2.12866615       0.04490287       2.36784328       5.78055831       8.38487803      -6.16206584
C        1.05988705       1.64557582       3.12106674      -2.41434565      -0.96291802       3.02254413
C        0.47868164       0.06714060       1.62356427       1.39431909      -3.85005986       2.21976480
8
Lattice="3.86800414 -1.7e-07 -1.7e-07 0.0 3.86800414 -1.7e-07 0.0 0.0 3.86800414" Properties=species:S:1:pos:R:3:forces:R:3 energy=-52.63222581 stress="0.1289202008557982 0.1492895363250079 -0.1075173300144563 0.1492895363250079 -0.13212130872581512 -0.09657459440566567 -0.1075173300144563 -0.09657459440566567 -0.21365295618224517" free_energy=-52.6976111 pbc="T T T"
C        3.20942066       3.20166606       2.22096646       0.04790665       0.13574243       0.10097830
C        2.92848106       1.97954347       2.97346612       0.08909110      -0.00803505      -0.05827236
C        1.70152210       2.38499550       0.81700608       0.05549629      -0.03725906       0.18358250
C        0.87177959       1.30441539       0.89466624      -0.03355139       0.03006559      -0.01626631
C        0.92026042       3.69555281       3.29077793      -0.10416546       0.02161300       0.12271266
C        1.87762417      -0.07962221       2.29282382       0.08333954      -0.19921176      -0.11863176
C        1.19008179       1.64961997       3.35267512      -0.03384189       0.00856676      -0.09435931
C        0.62637972      -0.03679538       1.43158586      -0.10427484       0.04851809      -0.11974373
8
Lattice="3.90871821 -1.7e-07 -1.7e-07 0.0 3.90871821 -1.7e-07 0.0 0.0 3.90871821" Properties=species:S:1:pos:R:3:forces:R:3 energy=-33.37145979 stress="-0.8531673974230545 0.16999133988361842 0.1950024919125321 0.16999133988361842 -0.9679580473628643 0.04275379626735345 0.1950024919125321 0.04275379626735345 -1.4844033910147043" free_energy=-33.38889189 pbc="T T T"
C        0.56064324       3.00535853       0.28414662      17.83898069      -6.33011463     -35.93125885
C        1.87730052       2.01879139       1.05183797       0.89196079      18.47057980     -15.84162852
C        3.59438933       2.55132896       1.86956006     -11.65947634      -8.93719235      18.33083532
C        0.05792822       2.02449316       3.47077380      23.60538953     -22.77069171      -3.14858879
C        0.24834631       3.29353911       1.22429067      -4.16254921      20.92923707      28.34398712
C        1.77915476       0.66181377       0.76412069      -2.55329231      -7.77578610     -14.62068053
C        2.00326901       1.18499276       1.78674222       3.39619658     -12.55488953      29.31374066
C        3.13359844       2.70031732       3.37213553     -27.35720972      18.96885745      -6.44640640
8
Lattice="3.90871821 -1.7e-07 -1.7e-07 0.0 3.90871821 -1.7e-07 0.0 0.0 3.90871821" Properties=species:S:1:pos:R:3:forces:R:3 energy=-33.37145979 stress="-0.8531673974230545 0.16999133988361842 0.1950024919125321 0.16999133988361842 -0.9679580473628643 0.04275379626735345 0.1950024919125321 0.04275379626735345 -1.4844033910147043" free_energy=-33.38889189 pbc="T T T"
C        0.56064324       3.00535853       0.28414662      17.83898069      -6.33011463     -35.93125885
C        1.87730052       2.01879139       1.05183797       0.89196079      18.47057980     -15.84162852
C        3.59438933       2.55132896       1.86956006     -11.65947634      -8.93719235      18.33083532
C        0.05792822       2.02449316       3.47077380      23.60538953     -22.77069171      -3.14858879
C        0.24834631       3.29353911       1.22429067      -4.16254921      20.92923707      28.34398712
C        1.77915476       0.66181377       0.76412069      -2.55329231      -7.77578610     -14.62068053
C        2.00326901       1.18499276       1.78674222       3.39619658     -12.55488953      29.31374066
C        3.13359844       2.70031732       3.37213553     -27.35720972      18.96885745      -6.44640640
8
Lattice="4.35601159 -1.9e-07 -1.9e-07 0.0 4.35601159 -1.9e-07 0.0 0.0 4.35601159" Properties=species:S:1:pos:R:3:forces:R:3 energy=-45.14165127 stress="0.08390717761371044 0.023447168877824637 0.11168012890529878 0.023447168877824637 -0.025482965142515707 -0.033565655528756545 0.11168012890529878 -0.033565655528756545 0.04838097772347672" free_energy=-45.16034857 pbc="T T T"
C        0.02312733       2.76202790       0.36522801      -4.92153844       5.02622126       8.53967983
C        0.55396262       2.14633177       3.79763033       5.47858998      -4.18260015      -5.11382939
C        2.19400974       1.20745177       1.83339077      -2.57134726       0.20346061      -1.61366145
C        0.51714748       3.79434787       3.14853453       2.33812743      -1.63050326      -0.68483363
C        0.53625325       0.95694376       0.88767495       2.72928058       0.06769725       1.00779858
C        2.95965453       2.25057900       2.16204584      -1.66505786      -0.86024032      -0.52124694
C        1.89452963       3.10233639       0.04809542      -1.84348202       0.16448699      -0.51316477
C        1.21763174       3.47944706       1.91332609       0.45542758       1.21147762      -1.10074221
8
Lattice="4.35601159 -1.9e-07 -1.9e-07 0.0 4.35601159 -1.9e-07 0.0 0.0 4.35601159" Properties=species:S:1:pos:R:3:forces:R:3 energy=-43.99869792 stress="0.09769448018274317 -0.022614290808905056 -0.0036241357067741333 -0.022614290808905056 0.02288153992141938 0.005498442347511753 -0.0036241357067741333 0.005498442347511753 0.1558500073639322" free_energy=-44.05083163 pbc="T T T"
C        0.02903504       2.80125618       0.33425032       0.18747457       0.22410524      -0.55208388
C        0.52645776       2.04544210       3.60370728       0.36359996       0.33020743       2.03311513
C        2.33570317       1.19949246       1.92507884      -1.08965524      -0.94295576      -1.13375143
C        0.40123458       3.88982538       3.14409471       1.85254816      -1.71920972      -0.76183947
C        0.37281282       0.93518584       0.82916183       0.74795766       0.86629297      -0.45049325
C        3.00937208       2.28601123       2.20452196      -1.18128610       0.34045084      -0.03843312
C        1.98782642       3.10564713       0.10436842      -1.69181920      -0.29180832       0.49367086
C        1.23387439       3.43660520       2.01074254       0.81118020       1.19291731       0.40981516
8
Lattice="4.2816077 -1.9e-07 -1.9e-07 0.0 4.2816077 -1.9e-07 0.0 0.0 4.2816077" Properties=species:S:1:pos:R:3:forces:R:3 energy=-47.52438913 stress="0.04469248750755458 0.006032489280223057 0.06563311678302579 0.006032489280223057 0.11305569370345415 0.039187787023536626 0.06563311678302579 0.039187787023536626 -0.17207360028280846" free_energy=-47.56319637 pbc="T T T"
C        3.95819668       2.68879838       2.60649133       0.79904931       2.21945219      -4.53433486
C        1.49065469       1.20599378       2.06630697       4.10795159       3.38832188      -2.65633390
C        3.77392977       3.31758913       0.04511922      -1.30296814      -0.67948480      -0.01586062
C        3.22856209       2.22377296       3.62656190       0.45451511       0.98882326       3.87409900
C        2.07017822       2.66012188       1.68237075      -0.16286981      -2.07184028       1.23185902
C        0.98421723       0.21165318       1.16855477       2.76339500       0.85900495      -6.22304548
C        3.34656572       0.81611513       1.79545994      -0.12965904       0.51346508       0.77084038
C        0.47830803       4.00398824       2.22692446      -6.52941403      -5.21774228       7.55277645
8
Lattice="4.2816077 -1.9e-07 -1.9e-07 0.0 4.2816077 -1.9e-07 0.0 0.0 4.2816077" Properties=species:S:1:pos:R:3:forces:R:3 energy=-46.66313911 stress="0.01842171071954766 0.041818977196499615 0.016703630244359138 0.041818977196499615 0.021653418892529634 0.011294459284373051 0.016703630244359138 0.011294459284373051 -0.038704770831717784" free_energy=-46.73411624 pbc="T T T"
C        4.26523393       2.62877211       2.61141731       0.57461408       0.50168955      -0.34134391
C        0.93222558       1.07700361       2.52730440      -0.19694104      -0.82965763      -0.83934776
C        3.77166835       3.19058427       0.05737439      -0.82222390      -1.13472024      -0.67692032
C        3.15707277       2.30913486       3.51135608       0.57847535       1.26566887       0.84615134
C        1.32248436       2.48321312       1.38699004      -0.45644410      -0.11139490       0.03074411
C        1.58876388       0.41636757       1.38074903      -0.21120085       0.11576268       0.97140056
C        3.66167432       1.17170182       1.50984049      -0.12556991       0.31435049      -0.03036898
C        0.63148927       3.85125523       2.23275760       0.65929036      -0.12169882       0.03968496
8
Lattice="4.23029912 -1.8e-07 -1.8e-07 0.0 4.23029912 -1.8e-07 0.0 0.0 4.23029912" Properties=species:S:1:pos:R:3:forces:R:3 energy=-38.40983869 stress="-0.12685915873526646 0.007326618156579208 0.2483754144416985 0.007326618156579208 -0.5392976703271091 0.045927349054224825 0.2483754144416985 0.045927349054224825 -0.40745175930356453" free_energy=-38.43655697 pbc="T T T"
C        2.88302356       0.31628843       3.23965244      -1.91869617       1.77907721       1.36198739
C        3.15441971       1.50181257       0.04710397       2.45176821      -0.13369294      -3.00808145
C        3.46271659       2.92580168       3.28238379      -1.53021357       2.68158951      -1.07956783
C        0.19919459       2.47973272       0.15914543      -2.46996532       0.06000595      -3.99369038
C        2.09701638       1.75943809       2.70903690       2.94652739      -1.26140501       0.25790546
C        4.17675864       0.49161883       0.91497285      24.85636583       0.29583266     -25.85429874
C        3.51475765       0.92565719       1.70596861     -18.10679044      39.30119617      20.55774746
C        3.55102366       4.07062476       1.65404587      -6.22899594     -42.72260355      11.75799810
8
Lattice="4.23029912 -1.8e-07 -1.8e-07 0.0 4.23029912 -1.8e-07 0.0 0.0 4.23029912" Properties=species:S:1:pos:R:3:forces:R:3 energy=-38.40983869 stress="-0.12685915873526646 0.007326618156579208 0.2483754144416985 0.007326618156579208 -0.5392976703271091 0.045927349054224825 0.2483754144416985 0.045927349054224825 -0.40745175930356453" free_energy=-38.43655697 pbc="T T T"
C        2.88302356       0.31628843       3.23965244      -1.91869617       1.77907721       1.36198739
C        3.15441971       1.50181257       0.04710397       2.45176821      -0.13369294      -3.00808145
C        3.46271659       2.92580168       3.28238379      -1.53021357       2.68158951      -1.07956783
C        0.19919459       2.47973272       0.15914543      -2.46996532       0.06000595      -3.99369038
C        2.09701638       1.75943809       2.70903690       2.94652739      -1.26140501       0.25790546
C        4.17675864       0.49161883       0.91497285      24.85636583       0.29583266     -25.85429874
C        3.51475765       0.92565719       1.70596861     -18.10679044      39.30119617      20.55774746
C        3.55102366       4.07062476       1.65404587      -6.22899594     -42.72260355      11.75799810
8
Lattice="4.29085346 -1.9e-07 -1.9e-07 0.0 4.29085346 -1.9e-07 0.0 0.0 4.29085346" Properties=species:S:1:pos:R:3:forces:R:3 energy=-36.00425033 stress="-0.9888083515529975 -0.14810906163486068 0.2565937487620591 -0.14810906163486068 -0.15893449096320755 0.13717660944288323 0.2565937487620591 0.13717660944288323 -0.48210617963225244" free_energy=-36.02868457 pbc="T T T"
C        2.93505009       2.26698493       1.33981228     -23.17927116     -12.95185812      20.45032468
C        3.49676988       0.45136081       3.96617663      27.87880678      -0.09397219      19.57499121
C        3.43095205       1.05650554       2.85919786       0.02613475       4.81269327     -11.48542217
C        2.16252093       0.33651635       2.28310620      22.66062032      -0.17453874     -18.87554691
C        3.70908526       2.67943212       0.77058907      26.27309904      15.26491892     -17.52563118
C        2.48424539       0.33488937       3.58695157     -29.56016412      -4.80424345      -2.52188860
C        0.78649636       4.26821634       1.28721308      -1.11549633      -1.39171038      -0.35415972
C        1.15847671       0.39222502       2.74971270     -22.98372929      -0.66128931      10.73733269
8
Lattice="4.29085346 -1.9e-07 -1.9e-07 0.0 4.29085346 -1.9e-07 0.0 0.0 4.29085346" Properties=species:S:1:pos:R:3:forces:R:3 energy=-54.21638847 stress="0.07810621514219514 0.053566128288120386 0.024544294729731214 0.053566128288120386 -0.00463336021361572 0.024280908062792275 0.024544294729731214 0.024280908062792275 -0.016329970703814183" free_energy=-54.26827166 pbc="T T T"
C        3.43849533       2.40552829       1.83607825       1.41947166       1.77082292      -1.81681534
C        3.34370192       0.48429977       3.91129092      -0.10061253      -0.40751093      -1.01135365
C        3.41549721       1.29962946       2.54008395      -2.57691128      -1.45966561      -0.39053730
C        2.39517144       0.25509911       2.02835042      -0.11115020      -0.32669007      -1.30131099
C        3.82592631       3.05299789       0.72063184       1.64661356       1.57711900       2.30221943
C        2.01764966      -0.06867524       3.42193620       1.43982279       0.33364252       0.99078317
C        0.96442325       4.21498641       1.48115553       0.02378830      -0.03438003       0.59375444
C        0.76273160       0.14226476       2.90323222      -1.74102231      -1.45333780       0.63326025
8
Lattice="4.00782838 -1.8e-07 -1.8e-07 0.0 4.00782838 -1.8e-07 0.0 0.0 4.00782838" Properties=species:S:1:pos:R:3:forces:R:3 energy=-48.27214874 stress="-0.38462167654918267 -0.03896815507070967 -0.24147963647529466 -0.03896815507070967 -0.050068953484007805 0.0031411780915184357 -0.24147963647529466 0.0031411780915184357 0.02187517088003685" free_energy=-48.28999066 pbc="T T T"
C        1.81563852       0.62146469       3.07968692       1.47244889      -1.53446989      -0.51927790
C        1.53340067       3.75290858       1.76911761      17.18886278       4.40753392       5.34363101
C        2.85701617       3.76007725       0.26964075      -2.95558658      -0.31448809      -5.25051707
C        3.16025111       2.28333680       1.74269167       0.66994749      -2.05584694      -2.18677788
C        0.41172028       1.03171216       0.87314338       2.50652292       1.76838549       2.10928346
C        0.41198989       3.60899730       1.42261209     -15.01851275      -2.29835494      -1.05441791
C        3.39769146       1.07801182       0.01982709      -4.30347491      -1.39127898      -1.73363809
C        3.49987056       3.07213219       2.74352191       0.43979215       1.41851943       3.29171438
8
Lattice="4.00782838 -1.8e-07 -1.8e-07 0.0 4.00782838 -1.8e-07 0.0 0.0 4.00782838" Properties=species:S:1:pos:R:3:forces:R:3 energy=-53.05509091 stress="-0.027078657463081114 -0.028456515166995006 -0.07653469261633106 -0.028456515166995006 -0.08360086149747918 0.011893330137650702 -0.07653469261633106 0.011893330137650702 0.05785725996533029" free_energy=-53.11269298 pbc="T T T"
C        2.01182709       0.83043630       3.30956463      -0.00519174      -0.00624367      -0.00378122
C        1.76296920       3.84173399       1.65217782       0.00099854      -0.00158427       0.00718381
C        2.66524286       3.62233376      -0.11707171       0.00308881       0.00539084      -0.00146315
C        2.96387073       2.20977845       1.73130047       0.00178090      -0.00143471       0.00244216
C        0.49788002       1.11075903       0.68574982      -0.00083742       0.00353101      -0.00256074
C        0.43935642       3.65168455       1.87101041       0.00182537      -0.00196279      -0.00354649
C        3.27375978       0.88740155       0.07788170      -0.00514377       0.00370226      -0.00057545
C        3.47267260       3.05451322       2.70962827       0.00347930      -0.00139867       0.00230107
8
Lattice="4.15601394 -1.8e-07 -1.8e-07 0.0 4.15601394 -1.8e-07 0.0 0.0 4.15601394" Properties=species:S:1:pos:R:3:forces:R:3 energy=-46.474132 stress="0.05412317558765866 0.04291008734459746 0.03811282194937394 0.04291008734459746 -0.01874353105028157 -0.17419036678406138 0.03811282194937394 -0.17419036678406138 0.05680813297260167" free_energy=-46.50852508 pbc="T T T"
C        0.02098421       0.88482717       3.20010077       0.77867396      -0.83085938      -1.63279090
C        1.15682419       1.13698903       0.17723482      -3.64976459      -4.30034331       1.90812642
C        1.80907754       1.15722712       1.95939607      -0.88941316       0.24760137      -1.63037664
C        2.03641687       2.50934311       2.01202494       2.90857228      -7.54663483      -6.43068265
C        0.72373533       3.90595179       0.85216340       0.44426914       1.39601160      -2.99155281
C        3.91979147       3.36779460       3.12169459       2.82940568       3.42002920       0.42467302
C        1.72286357       3.34978261       2.81042782      -2.54181512       8.99922494       7.06390476
C        4.12114419       1.86520745       1.72132982       0.12007182      -1.38502960       3.28869879
8
Lattice="4.15601394 -1.8e-07 -1.8e-07 0.0 4.15601394 -1.8e-07 0.0 0.0 4.15601394" Properties=species:S:1:pos:R:3:forces:R:3 energy=-49.09167543 stress="0.0048425834762998434 -0.0005167349462299681 -0.006583804989448015 -0.0005167349462299681 0.05325195625897876 -0.040551584879299225 -0.006583804989448015 -0.040551584879299225 -0.04772787821720785" free_energy=-49.15772182 pbc="T T T"
C       -0.00770076       0.99571507       3.21365868       0.03164861      -0.00073394      -0.00913920
C        1.09568998       1.38774242      -0.20173988       0.00254802      -0.01190814      -0.02408280
C        1.64888182       0.98105794       2.06097356      -0.01812411      -0.01718435       0.00749956
C        1.70683569       2.45142325       1.75720794      -0.02269087       0.02743754      -0.00092060
C        0.88439702       3.72702254       1.27500715       0.00293862       0.03109261      -0.02766124
C        4.02291576       3.71317527       3.17362388       0.00802998       0.01712468       0.03004822
C        1.83501045       3.50044771       2.73221591       0.01125065      -0.03380418      -0.00383465
C        4.32480741       1.42053868       1.84342496      -0.01560090      -0.01202422       0.02809071
8
Lattice="3.84917024 -1.7e-07 -1.7e-07 0.0 3.84917024 -1.7e-07 0.0 0.0 3.84917024" Properties=species:S:1:pos:R:3:forces:R:3 energy=-46.24582436 stress="-0.34305502893654505 -0.11788175509370159 -0.0518663696318992 -0.11788175509370159 -0.23469551805233782 -0.04416203124638679 -0.0518663696318992 -0.04416203124638679 -0.23789208885702398" free_energy=-46.25712282 pbc="T T T"
C        3.43788140       3.46510619       0.49633880       1.75809401      -3.68980937      -5.47756957
C        0.91278946       1.00839080       1.96839895      12.86781995      -4.63061181       8.31506822
C        3.08503416       0.43495302       1.48447781      -8.52619052      -4.44104291       5.53083353
C        2.72113110       1.14169145       3.58916682      -1.01808930      -0.42513271      -1.63104663
C        0.54254643       3.09140921       2.65983179       1.53447149      -1.07492772       2.58834229
C        1.27242829       3.72962250       0.65064743      -0.20723771      -0.85549230       0.13087457
C        0.03080060       1.38658063       1.25152889      -6.69366921      12.62466658      -8.56630751
C        1.49382459       1.70139623       3.04875128       0.28480128       2.49235023      -0.89019490
8
Lattice="3.84917024 -1.7e-07 -1.7e-07 0.0 3.84917024 -1.7e-07 0.0 0.0 3.84917024" Properties=species:S:1:pos:R:3:forces:R:3 energy=-51.19498431 stress="-0.07328372535568084 -0.10001011618805916 0.0628337759851551 -0.10001011618805916 0.0582963346284275 -0.15125473795704011 0.0628337759851551 -0.15125473795704011 -0.09473710180230337" free_energy=-51.24521459 pbc="T T T"
C        3.23887290       3.49963399       0.44760816      -0.00139024       0.00341699      -0.00239037
C        0.97830672       0.85498169       1.98595679      -0.00175796       0.00074136      -0.00762182
C        2.76994959       0.45141528       1.54072994       0.00346727      -0.00207280      -0.00230786
C        2.59835200       0.90340114       3.60619375      -0.00212786       0.00095082       0.00406147
C        1.21648356       3.16839524       2.55520677       0.00228295      -0.00158435       0.00310009
C        1.30878855       3.64789457       0.69694444      -0.00061732       0.00077844       0.00004025
C       -0.23153679       1.58564425       1.44578200      -0.00270045       0.00356959       0.00860944
C        1.61721948       1.84778390       2.87071987       0.00284361      -0.00580005      -0.00349120
8
Lattice="4.31793335 -1.9e-07 -1.9e-07 0.0 4.31793335 -1.9e-07 0.0 0.0 4.31793335" Properties=species:S:1:pos:R:3:forces:R:3 energy=-42.77315743 stress="-0.313229921161511 -0.018778505502706187 0.08465741317101112 -0.018778505502706187 -0.27791589414010254 0.17949004803004054 0.08465741317101112 0.17949004803004054 -0.10787591865726968" free_energy=-42.81692939 pbc="T T T"
C        2.66350583       1.17268028       1.05307762     -23.84933171     -11.20383586      17.06033387
C        0.50923158       3.30597979       1.65129219       4.93865967      -6.93797339       5.75951966
C        4.31590219       4.29025016       1.15394922      -0.74333053       4.03581334      -3.49166053
C        1.76847701       1.52623417       0.17274880      -7.26273561       0.11773162      -4.08590886
C        0.50172231       1.10166627       3.41390338       1.53431584       1.77351407       4.85673286
C        3.47127358       1.59493536       0.47526619      26.61628307      14.47827427     -17.82264743
C        3.59711586       3.61674145       3.40018234      -0.78887470       0.31952350       0.08502168
C        3.25409989       3.81668570       0.41205316      -0.44498601      -2.58304755      -2.36139124
8
Lattice="4.31793335 -1.9e-07 -1.9e-07 0.0 4.31793335 -1.9e-07 0.0 0.0 4.31793335" Properties=species:S:1:pos:R:3:forces:R:3 energy=-47.88252966 stress="0.07876970691719633 0.0031217511509452683 -0.0009643246630502824 0.0031217511509452683 -0.061108828351965926 -0.004223454269742894 -0.0009643246630502824 -0.004223454269742894 0.046114546424418784" free_energy=-47.95605533 pbc="T T T"
C        2.09241238       1.30037550       1.28553350      -0.06606438       0.01886895       0.00494769
C        0.25833073       3.02203605       1.40854935       0.01252822       0.03437065       0.00017106
C        4.31270455       4.35693140       1.37947332       0.03080680      -0.06096337       0.00776109
C        1.98985067       1.43606233      -0.09982382       0.01524962       0.01301116      -0.00259878
C        0.91844018       1.45305586       3.30791773       0.00374099      -0.00760687       0.05397817
C        3.54791988       1.47004120       0.19119795      -0.02495089       0.00744338      -0.02766100
C        3.77802026       3.72669083       3.67898631       0.00906839      -0.01609127      -0.02513640
C        3.18364957       3.65998013       0.58063863       0.01962126       0.01096736      -0.01146183
8
Lattice="3.93100321 -1.7e-07 -1.7e-07 0.0 3.93100321 -1.7e-07 0.0 0.0 3.93100321" Properties=species:S:1:pos:R:3:forces:R:3 energy=-38.53265617 stress="-0.6425357954830045 0.03830364984314718 0.4606841230971481 0.03830364984314718 -0.6419495956047845 0.08451291507573597 0.4606841230971481 0.08451291507573597 -0.5945620586351774" free_energy=-38.55352475 pbc="T T T"
C        2.02207660       1.91527949       3.55704301      -7.20152337      10.36558199      -4.31326060
C        3.03795928       3.25826149       2.77984308       3.40093337      -1.03918529       2.27023039
C        2.92738763       1.11619613       3.79648230      29.20565726       6.11670300     -26.78876340